ITEM: TIMESTEP
100000
ITEM: NUMBER OF ATOMS
300
ITEM: BOX BOUNDS pp pp pp
-9.9943299999999997e+00 1.0005670000000000e+01
-9.9461431999999999e+00 1.0053856800000000e+01
-9.7533399999999997e+00 1.0246660000000000e+01
ITEM: ATOMS x y z vx vy vz 
-5.53503 -6.51393 -6.12137 0.000704519 0.00555698 -0.00746933 
-5.25928 -7.13577 -6.85436 0.00300563 -0.00235129 0.00013191 
-6.63613 -2.14086 -8.16558 0.0066395 0.0187108 -0.0101557 
-7.5614 -1.86341 -7.90696 -0.000541885 -0.00623842 -0.00933288 
-3.77368 -3.45822 -4.58633 0.0140085 -0.0313575 0.0130201 
-4.30416 -4.09187 -5.14943 -0.00368054 0.000233683 -0.00612611 
-5.08805 -4.42647 -4.6264 0.00531722 -0.0187627 -0.00475557 
-3.35067 -0.771958 -6.22076 0.000633843 -2.32587e-05 0.00136817 
-3.44562 -1.43777 -6.96081 0.00705734 0.000163732 0.000384777 
-2.73912 -1.84797 -3.70653 0.00767987 0.000406276 0.00329958 
-2.94295 -0.949614 -3.31741 0.00948749 0.00222618 2.69297e-05 
-9.02485 -2.31981 -3.60577 -0.00315836 0.00121863 0.00489188 
9.13115 -5.32227 -4.02757 0.00330153 -0.00447517 -0.00139315 
-2.8043 -4.99202 -5.43567 -0.0121162 -0.0136178 -0.0193136 
-1.74989 -1.94847 -3.81295 0.00707794 0.000736475 -0.00276675 
-7.96828 -1.32858 -8.64751 -0.00916997 -0.00266402 -0.00198509 
-9.66071 -2.86047 -4.15656 -0.00105777 0.00461407 -0.00086173 
-9.17007 -3.27114 -4.92508 -0.000493154 0.0186806 -0.00792276 
-7.46164 1.76911 -7.02723 0.0138905 0.0106248 0.014954 
-4.95677 -3.24454 -8.81127 0.00903763 0.000994184 -0.00260579 
-5.03939 -2.31585 -9.17281 0.00414738 0.00166693 0.000237369 
-4.19325 -2.0646 -9.64282 0.00711833 0.0118788 0.0111581 
-4.73383 -5.68804 -8.13434 0.0112166 -0.00402499 0.00019247 
-4.80941 -4.69537 -8.04006 -0.00177189 -0.00504075 0.00103455 
-4.42457 -4.41374 -7.1611 -0.0103202 -0.0013899 0.00354794 
-6.72277 -5.40761 -4.72449 -0.00177646 -0.00361065 0.000376182 
-6.98095 -6.3502 -4.51267 0.000480072 -0.000910968 0.0152209 
-7.46147 -4.96608 -5.23378 -0.00387984 -0.0126267 -0.00443193 
-0.065416 -0.895288 -6.61366 0.00195987 -0.000505827 0.000175675 
-2.97551 -1.22419 -5.41159 -0.0274745 -0.00505566 0.0114997 
8.33959 -1.33688 -5.16328 0.00371889 -0.00389657 0.00349831 
-1.94803 -5.50847 -5.4267 -0.003057 0.00147755 -0.00221929 
8.34804 -1.73341 -6.08126 0.0147492 0.0160845 -0.00494211 
-0.15493 -5.84399 -5.08456 0.00193457 0.000908668 0.00331551 
8.95488 -1.85617 -4.57018 -0.0122682 -0.0239044 0.00258006 
8.2067 -5.00314 -3.81889 0.00398994 -0.000939003 -0.00367685 
-2.07347 -6.37044 -5.91789 0.0189572 -0.00576071 0.00463171 
-2.76351 -7.28461 -7.26895 -0.000892197 0.000900533 0.00217882 
-4.83162 -9.29834 -4.80009 -5.0774e-05 -0.000904181 -0.000617402 
0.577564 -4.97134 -7.41939 0.0146384 0.00215011 0.0201886 
0.0375147 -1.64819 -5.11552 0.0166608 0.00238488 0.000711772 
-2.40529 -8.21352 -7.36279 -0.0034813 0.00270501 -0.0246747 
-3.75981 -7.31797 -7.18966 -0.00338792 0.00344338 -0.0277025 
-7.02797 -9.38839 -7.24837 0.00412863 0.00391473 0.00723476 
8.90246 -7.18838 -4.30866 0.000789383 0.000352523 0.0155306 
-8.0155 -9.30345 -7.11581 0.00191555 0.00480488 -0.0091452 
-0.602598 -4.31741 -6.49945 -0.000923372 0.000469774 0.00143914 
0.8384 -1.10544 -6.98643 0.0209603 0.0395472 0.0230791 
0.202057 -4.11764 -7.05857 -0.00127587 0.00290633 0.00179455 
-7.99181 -3.15935 -6.89997 0.0159133 -0.00912429 -0.00740512 
-8.43464 -3.82089 -6.29478 -0.00144277 0.00401203 -0.00564774 
-8.7575 -4.60011 -6.83198 -0.0200572 0.0100754 -0.003313 
-7.25796 -8.10603 -4.43603 -0.00375762 0.000164958 0.00118622 
-6.57111 -8.81877 -4.29378 -0.000763611 0.00222691 -0.002986 
-4.53982 9.7558 -4.65794 -0.0053295 -0.00282711 -0.00248597 
-1.042 -9.60483 -6.81405 -0.00993049 0.021797 0.00122994 
-7.09666 8.9336 -1.79439 -0.000820005 0.000802759 -0.00618596 
-8.08528 0.335087 -5.1361 0.0186803 0.0131291 -0.000957946 
-8.02282 -0.378219 -6.60375 0.000309897 0.00111603 0.004132 
-8.191 0.480565 -6.1198 0.00485238 0.00470428 -0.000672701 
-7.03501 8.6785 -2.75934 -0.00204817 -0.00064551 -0.00588239 
-4.29085 0.794332 -5.82934 -0.0209579 -0.00629671 0.00647502 
-4.25686 9.35941 -5.53133 0.00761989 0.00243397 -0.000779529 
-2.57229 9.63502 -3.93547 -0.00572592 -0.00319192 0.0199931 
-2.01864 -9.22999 -2.90011 0.0143009 -0.00111931 0.0070062 
-6.81935 2.16744 -7.68206 0.00477003 0.00320059 0.00145465 
0.691789 -6.34743 -4.91247 0.000289221 -0.00353854 -0.00168276 
0.144142 -7.98189 -5.26618 -0.0225793 0.00262467 -0.0125795 
-0.00720989 -8.95652 -5.43106 0.00723272 -0.00340109 -0.00489014 
8.94122 -8.15994 -4.54227 0.00102818 0.00394242 0.000553789 
6.27327 -3.57295 -4.10293 0.0160675 0.0010289 -0.00245913 
-8.08909 -0.694373 9.37534 -0.00267104 0.00451125 0.00116539 
3.88294 -5.53184 -4.73163 -0.00158464 0.00311852 -0.00144884 
3.37693 -4.69957 -4.9581 0.00102115 -0.00115112 -0.0236446 
0.942309 -6.25868 -3.94843 0.00417289 -0.00838689 -0.00225196 
6.30549 -4.57134 -4.05624 0.00202163 0.000640987 8.575e-05 
5.43129 -4.94778 -4.36293 -0.00961418 0.0127313 0.018509 
9.77524 -4.56327 -3.93237 0.00430926 -0.00400559 -0.0115267 
4.74248 -7.89553 -6.78041 0.00707954 -0.000255 -0.00518832 
5.28255 -1.06289 -5.42482 2.22228e-05 -0.00259708 0.00634819 
4.75908 -6.93273 -7.05015 0.00239516 0.00104101 -0.000750083 
4.39664 -6.37175 -6.30588 -0.0296355 -0.00711983 -0.00989367 
5.79065 -1.21431 -4.57694 2.4486e-06 0.0013957 0.00708093 
3.12576 -7.56115 -3.00694 0.0103878 0.0098348 -0.00461255 
5.86941 -6.26878 -8.02043 0.00611925 -0.00690313 -0.0107902 
7.13431 -5.33085 -7.58798 -0.00278672 -0.000918277 0.00245985 
6.67692 -5.78237 -8.35409 0.00810386 -0.00421859 -0.00217218 
6.76134 -1.0314 -4.73281 0.00107397 -0.00692317 0.00425509 
2.91537 -6.68275 -2.57782 0.00226274 0.0067221 -0.00230329 
3.27342 -6.67362 -1.64415 -0.0410024 -0.0111667 0.0145219 
8.73454 -4.64479 -5.73455 -0.00445128 0.0181126 -0.00096257 
8.52986 -4.65551 -6.71332 0.000771474 -0.00111558 -0.00193387 
9.18633 -5.24443 -7.18472 0.00565543 -0.00734288 0.0126345 
3.47212 -5.96363 -3.92864 -0.00923403 0.0203769 0.00396788 
-8.77933 -0.791831 10.0923 -0.00370801 0.00108715 -0.000290778 
1.35911 -3.0035 -7.40475 0.00794557 -0.00697296 -0.0114917 
2.05501 -2.30099 -7.55378 0.00116612 0.00222329 0.000333981 
2.84376 -2.70593 -8.01627 0.0120052 0.0138986 0.00849265 
1.33349 -6.89507 -6.6435 -0.0125591 -0.0235324 -0.00325844 
1.4008 -6.63473 -7.60667 -0.00220835 -6.98978e-05 0.00373444 
1.94209 -8.23082 -8.53514 -0.0081271 0.0039248 -0.00744124 
2.20201 -8.86127 -9.26657 -0.00948278 -0.00346195 -0.00154813 
3.1947 -8.84242 -9.38579 -0.00848744 -0.0140783 0.00496452 
4.74054 -4.11687 -8.13961 0.0107528 0.00842311 0.0197606 
4.5847 -3.21782 -8.54878 -0.000560144 -0.00174392 0.0017472 
5.22229 -3.08159 -9.30701 -0.0137402 -0.0158215 -0.0120026 
2.36385 -6.57372 -7.86897 0.000387535 -0.0286924 0.00631392 
5.16106 -8.95615 -9.71562 0.00265925 0.00479997 0.000489881 
2.36349 -2.8177 -5.49157 -0.00417529 0.00425014 0.00737961 
7.31715 -9.02848 -8.00946 0.00380403 0.00059119 0.00180027 
7.82317 -8.33037 -8.51601 0.00276237 0.00318235 0.00435553 
7.93097 -9.78343 -7.77865 0.00544901 0.00167822 0.000983036 
5.87481 -8.97651 -9.01551 0.0139565 -0.0155067 -0.0115723 
-9.43559 -0.0400716 10.0276 0.00614267 0.0107787 0.0129665 
9.74973 -1.43794 -8.3412 -0.0212018 -0.00302242 -0.0241974 
9.32192 -2.70088 -7.39852 0.00944102 0.00228802 -0.0031017 
2.99206 -9.29279 -5.14045 -1.70984e-05 0.0188262 -0.0103866 
8.9843 -1.90038 -7.8937 -0.0071462 -0.00273512 5.93776e-05 
-8.81342 -6.01585 -8.79276 0.00679831 -0.00991774 -0.00145624 
3.40351 -1.23786 -6.79467 -0.00788714 0.016745 -0.0145952 
-0.524552 -9.34703 -4.66958 0.00843949 -0.0105844 -0.00775658 
2.57464 0.433789 -4.62848 0.0148634 -0.00856724 -0.00818219 
6.86945 -8.26793 -4.74123 0.00970053 -0.00476072 -5.48255e-05 
2.66925 -2.98922 -4.55503 0.00667783 -0.00271677 0.00254971 
-1.75961 -9.87658 -3.61763 -0.000652611 0.00246277 -0.00157035 
1.5559 -9.46149 -5.89919 -0.00705036 0.0167057 0.00342008 
2.54381 -9.37859 -6.03023 -0.00674152 -0.00126949 -0.0050009 
4.86515 -1.59376 -7.42999 -0.00262228 -0.00795539 0.0113907 
-9.15206 -6.96967 -7.51126 0.00442835 -0.000975123 0.0045677 
-9.24217 -6.04854 -7.88993 0.000929446 -0.00485008 -0.00406178 
7.77961 -2.32032 -9.22015 -0.00953344 0.0094361 -0.000436304 
4.33343 -0.901147 -6.94259 0.000547368 0.000681177 0.00265495 
-2.63079 0.880703 -3.22113 0.000935789 -0.00904882 -0.00234747 
-3.53227 1.19543 -2.92399 0.00156149 0.00930728 -0.0199009 
-5.97764 -7.81543 -7.00278 -0.00362925 0.00593721 -0.00586845 
-0.431857 -0.0823202 -7.06621 -0.0146436 -0.00605502 0.00371721 
-5.6894 1.43953 -6.37198 -0.00782423 0.0206872 0.00498137 
-4.90189 1.58391 -5.77284 -0.0061196 0.00510838 0.00643974 
-5.41924 8.11049 -6.68944 0.000964206 -0.021363 -0.0230657 
-6.34833 8.05384 -6.32395 0.00440118 -0.00702215 -0.0119191 
-6.78473 9.64525 -7.33184 0.00324617 0.0040703 0.00226354 
-9.6591 -8.87386 -6.82357 -0.00458692 0.000228614 -0.00185151 
-8.14933 -8.43511 -4.12431 -0.00336062 -0.00727741 -0.00560694 
-1.11407 0.813785 -8.29007 0.000489925 0.00419624 -0.000401457 
1.21142 0.614545 -3.55101 0.000131871 0.00874113 -0.00966104 
-0.274576 0.639324 -2.87432 0.0153829 0.00752215 0.0239151 
0.432746 1.19459 -3.31179 5.7505e-05 0.00592291 -0.00306616 
-2.16774 1.61563 -3.71657 0.0326741 -0.0126685 0.0222296 
-8.44982 0.857997 -2.60602 0.00911042 0.0193169 0.00327294 
-7.7671 0.658999 -3.30908 -0.00212248 -0.000672776 -0.00200792 
-1.6638 10.0092 -7.49549 0.00120143 0.00254225 0.00182875 
-6.91781 1.14161 -3.0951 0.00526202 -0.00438847 -0.0227952 
-5.35991 3.17846 -6.30562 -0.00370988 0.000367873 0.00865521 
-6.41933 7.26398 -5.7148 -5.62096e-05 -0.00515507 -0.0100692 
-6.28831 8.0252 -2.88437 -0.00905679 -0.00897 -0.00414129 
-1.20648 9.97786 -8.38424 0.00735856 0.000525091 0.00510348 
-5.55277 4.49433 -7.25324 -0.0267185 -0.00662179 0.00365569 
-5.4373 4.17544 -6.31251 -0.00262574 0.000390909 0.00302871 
-4.30575 5.95509 -3.31391 0.0128019 0.00882242 -0.0040199 
-4.91281 6.74966 -3.32584 0.00537242 0.00318708 -0.000579559 
-4.41365 7.5454 -3.66882 0.00391267 0.0140169 0.0222249 
-6.9754 5.76102 -4.88836 -0.00111026 0.00458419 0.00278234 
-3.10804 7.34779 -6.95997 -0.00764061 0.000430759 -0.0143779 
-3.1628 8.96787 -7.15754 -0.0124516 0.00082035 -0.0100927 
-3.63727 8.17561 -6.77387 -0.00361146 -2.2996e-05 -0.000763784 
9.35095 2.53192 -4.47189 0.0133723 0.00930716 -0.0116114 
9.62711 2.91865 -3.59202 -0.00590103 -0.00333245 -9.83708e-05 
-10.2118 2.17898 -2.9386 -0.0218814 -0.012702 -0.00654435 
-2.34666 4.74956 -7.02949 0.00339756 0.00418716 -0.0054152 
-2.52619 4.31441 -4.28141 -0.000119104 0.0147919 -0.00787274 
-3.49337 4.56838 -4.27319 -0.00161151 0.00914904 -0.00276283 
-2.19211 5.7375 -7.03943 -0.00102884 0.00488977 -0.00372803 
-1.52448 5.97756 -6.3347 0.00201065 0.00603127 -0.00704077 
-3.85223 4.54449 -5.20628 -0.00760328 0.00256874 -0.000260806 
-6.65098 5.02475 -5.48221 -0.00369296 0.00958475 -0.00485781 
-0.458146 2.5361 -3.87679 -0.0059895 0.000977477 0.00975884 
-6.43442 5.77387 -4.04742 -0.010083 -0.014991 0.00905354 
-1.23919 3.08428 -4.17589 -0.00157235 0.00144036 -0.000837772 
-1.37888 2.95754 -5.15794 -0.00447051 -0.0186344 0.00223901 
-5.04465 1.96758 -4.16921 0.0192797 -0.00267998 0.00537555 
-5.16287 2.37737 -3.26472 0.00463059 7.26033e-06 0.00230437 
-0.136942 6.58536 -5.52185 0.00343893 0.00109924 0.0037266 
-9.83018 4.04599 -8.59015 0.00225114 -0.000675183 0.00200268 
-9.42266 4.93869 -8.78256 -0.00245834 -0.00563069 -0.032435 
-0.387588 4.89877 -8.56122 -0.0029384 -0.0155838 -0.0184709 
-0.446049 6.94248 -4.64042 0.0085171 -0.00499165 0.00797512 
-8.71888 5.86443 -4.73659 -0.00590484 0.00718099 0.00577509 
9.19168 4.15701 -8.41429 0.00110372 0.000882863 -0.00510206 
-2.18053 2.57601 -6.62756 0.00374302 -0.00245411 0.00158567 
-3.09483 2.1851 -6.52147 0.00581091 -0.00797629 -0.000785941 
-4.89103 3.33919 -3.2964 -0.0306905 0.00984238 -0.00513618 
-1.66322 2.03814 -7.29321 0.0144877 -0.00928977 0.0155118 
-9.68656 5.69557 -4.9239 -0.00250374 -0.00657497 0.000457751 
9.93518 9.69695 -3.7524 0.0102666 -0.00943503 -0.0266984 
10.0583 4.79453 -4.57314 0.00841316 -0.0102853 -0.00113326 
8.7605 8.09599 -4.44185 -0.00552813 -0.00595879 0.00284037 
9.18899 1.19441 -1.5604 -0.00192182 -0.0107689 0.00374417 
-9.82968 1.01551 -1.63102 -0.00116652 -0.00253191 -0.00626261 
9.83855 -8.70489 -5.97558 0.0256128 -0.00655497 0.0174062 
9.29885 7.29222 -4.6951 -0.00239581 0.00179951 -0.0155623 
-9.50501 0.598082 -0.78229 0.0107909 -0.0007225 -0.0099445 
0.0586896 -2.08692 -4.21715 -0.000213349 -0.000692137 -0.000400838 
-8.47639 9.52153 -3.41653 0.00297259 0.00177753 0.0131536 
-9.21888 -9.81832 -3.53006 0.00076761 -0.00364153 -0.00339134 
0.217733 7.33572 -6.07967 -0.0167476 0.00778523 -0.000191736 
-7.28879 2.33657 -8.54867 -0.0108025 0.00610319 0.0104582 
-1.46119 0.150941 -8.9535 -0.00679585 0.0136664 -0.00606475 
-8.05492 6.90265 -8.33748 -0.0220335 0.0305928 -0.00648625 
-0.362691 1.33203 -8.69854 -0.0123564 0.0187597 -0.00564907 
-1.90492 -2.95853 -8.69693 0.00928314 0.00539958 -0.00975808 
-2.10678 -1.99037 -8.5489 0.000875744 0.00166969 0.00302013 
9.64023 -8.60898 -3.98573 -0.00704577 -0.00677721 0.00201287 
2.67013 6.21859 -3.80526 -0.0113848 -0.0185251 0.00223393 
2.63411 -0.382692 -4.05418 -8.00777e-05 -0.00349849 0.000275434 
3.33409 -0.246821 -3.35307 -0.014847 0.000763569 0.0141378 
4.10149 -8.93668 -3.71589 -0.00819343 -0.00177409 0.00795073 
4.81573 -8.82341 -4.40657 -0.0189344 0.0016603 -0.00265116 
4.33566 -9.70225 -3.11667 0.00221404 -0.0033692 0.00185013 
3.61493 7.59088 -2.42712 -0.00249559 -0.000863194 -0.0056306 
2.65418 6.16957 -2.80659 0.0101501 -0.0018287 0.00331202 
2.57281 5.21469 -2.52097 0.0268388 0.00207909 0.0211812 
4.23258 8.35931 -2.25972 -0.000825907 -0.00341119 -0.000122337 
10.069 -9.75894 -7.20137 0.00965079 -0.0138615 0.0207858 
2.1752 3.44914 -2.98925 0.00118885 -0.00528901 0.0067842 
1.5691 2.65762 -2.91089 -0.000211934 -0.0039392 0.00952099 
0.899142 5.88056 -8.34417 -0.0265592 0.00775825 0.0157849 
0.601963 4.92876 -8.42018 -0.00596138 0.00272964 -0.000715831 
2.17867 3.774 -3.93501 -0.0203198 0.00903981 0.0116592 
-9.98947 1.1005 -6.21574 -0.00442851 0.0255568 -0.00429479 
9.22296 1.34492 -5.65006 -0.00569877 0.00691488 0.00197071 
7.84936 7.80768 -4.1474 -0.00383115 -0.0163857 -0.0021342 
9.58435 8.15314 -7.99805 0.0206911 -0.00383302 0.0113935 
9.10258 8.84836 -7.46461 -0.00168205 -0.00661266 -0.00536679 
8.69738 8.42522 -6.6542 -0.0155984 -0.00622241 -0.0120563 
4.40567 9.56869 -8.62535 0.0319617 -0.0117381 0.0248843 
6.62588 -8.40278 -6.35032 -0.0209642 0.0106141 0.00336524 
6.19561 -8.47496 -5.45051 -0.00318396 -0.000339467 0.010984 
0.901327 -2.61746 -4.12506 -0.00224341 -0.00150652 0.0134311 
3.80544 8.93845 -8.13289 0.00027676 5.47995e-05 0.00153318 
3.23363 9.45325 -7.49413 0.0278494 0.00488637 0.0222631 
2.93452 -2.12505 -4.12743 0.0145388 -0.00627679 0.00494331 
8.50972 1.60065 -9.33782 4.39772e-05 -0.00197063 -0.0125934 
7.52932 1.02421 -1.64636 0.00265134 -0.00240989 0.00253537 
6.85794 1.70706 -1.93441 -0.00127398 -0.00119904 0.0144884 
5.28731 2.03632 -7.26439 0.0130793 -0.00226527 -0.0129121 
4.39355 1.69216 -7.55205 0.00638813 0.00334118 0.00147745 
4.45054 8.40555 -1.28486 0.0145983 -0.0225702 -0.00267525 
2.21401 5.10876 -5.47448 0.00279 0.000774205 0.000462229 
3.19138 1.49784 -6.4866 0.00113735 0.000649061 0.0143189 
2.536 4.79162 -6.36652 0.00217541 0.00385913 -0.000844526 
5.8767 6.79198 -4.96768 0.0250258 0.00381459 -0.00183217 
6.27057 7.00484 -4.0735 0.0148382 0.00338379 0.00277531 
3.66234 2.37647 9.82858 -0.00141678 -0.00335991 -0.00030557 
4.0749 1.95078 -9.36607 0.00200916 -0.0105083 -0.00581478 
5.64269 7.59343 -3.56426 0.00241118 -0.00903013 0.00170184 
8.7611 0.512422 -5.34409 0.000373319 -0.00349388 -0.0171854 
4.93798 -0.759149 -2.81405 0.00763851 -0.000318675 0.00576522 
4.9434 0.554698 -1.84428 -0.00790598 0.0017503 0.00284354 
4.74276 -0.423785 -1.89241 8.26399e-05 9.09392e-05 0.00394474 
5.56807 3.0214 -2.92826 0.00304618 -0.0135193 -0.0133114 
7.06541 0.157751 -1.46187 0.00652652 -0.0060207 -0.00470945 
4.97899 2.27303 -2.62344 -0.00356038 -0.00401509 -0.0029801 
7.22474 3.40455 -7.10835 -0.0229015 0.00585165 0.0278524 
7.74616 1.92764 -6.64625 0.00538366 0.00501735 -0.00683642 
7.05822 2.42101 -7.17853 0.00248821 0.00385598 -0.00416645 
1.27172 5.43341 -5.55634 0.00261003 0.0007391 0.00231572 
6.92178 3.81632 -3.4822 -0.000120557 0.00835264 -0.00442195 
6.86372 4.63946 -4.04707 0.0103288 0.0148277 0.00401795 
7.86791 3.49329 -3.46005 -0.00315965 -0.000502507 -0.00283857 
2.51886 1.46466 -5.74727 -0.00887456 -0.00566333 0.00483375 
1.62248 1.73355 -6.09971 -0.00943317 -0.0286351 -0.0112814 
8.44918 5.83984 -6.39626 0.00699653 -0.0166424 0.00136633 
6.90661 5.93032 -6.92444 0.0112232 0.0264682 -0.00340695 
7.75731 5.40702 -6.97417 -0.00347449 0.00229715 -0.000187302 
3.90911 3.54391 -7.64672 -0.00690611 0.00345948 0.0128028 
3.27617 4.72684 -8.57772 0.00183287 -0.00316034 -0.00153829 
3.66037 4.51191 -7.67983 -0.0017395 0.00440265 0.00179704 
4.02091 2.54476 -2.71425 -0.000711818 0.0115864 0.0143372 
4.82692 5.87454 -6.91734 -0.014893 0.0103658 0.00115297 
5.28872 6.63695 -6.46407 0.000264754 0.00203152 -0.00035061 
1.74225 2.28291 10.3743 0.0240836 -0.0145501 0.0295502 
4.3046 0.732291 -7.28606 0.0178047 -0.0055452 -0.0278014 
3.94594 1.88105 9.00752 0.0014308 0.00872424 -0.0066168 
4.85912 7.49736 -6.7382 -0.00742153 0.00730414 0.0281636 
1.02313 2.33909 -8.93312 -0.00222625 -0.000522796 0.000828041 
0.956739 3.27855 -8.59697 0.023251 -0.0054996 0.0200904 
2.04601 7.99163 -7.93447 -0.00140654 0.00281925 0.017808 
1.07418 7.79777 -7.80046 -0.00184867 -0.0067911 0.000589296 
0.746753 -9.7811 -9.60223 -0.00220437 -0.00465605 -0.0126642 
5.54744 -8.62374 9.42402 0.00308553 -0.028661 -0.0122387 
-0.00238907 9.55941 -9.66435 -0.00396504 -0.00297683 -0.00906638 
-0.392183 9.58344 9.41507 -0.00272232 -0.00829348 -0.00972487 
7.40016 -3.87688 -9.5361 0.0042909 0.00800884 -0.0100216 
7.18019 -2.92413 -9.74561 -0.00158038 0.00731587 -0.0070549 
9.96467 2.31318 -9.1326 -0.00747947 0.00940423 0.00101831 
-8.67023 6.55329 -6.86573 0.013252 0.0266083 0.00740754 
-1.58856 -1.65854 -7.76065 0.00781246 -0.000934396 -0.000459492 
-8.88736 6.66911 -7.83498 -0.00425429 -0.00178483 0.00781043 
9.49932 1.4604 -9.36972 0.00142406 0.00486682 -5.18136e-05 
0.534828 8.33223 -8.4512 0.00410043 -0.00868872 -0.00591021 
ITEM: TIMESTEP
200000
ITEM: NUMBER OF ATOMS
300
ITEM: BOX BOUNDS pp pp pp
-9.9943299999999997e+00 1.0005670000000000e+01
-9.9461431999999999e+00 1.0053856800000000e+01
-9.7533399999999997e+00 1.0246660000000000e+01
ITEM: ATOMS x y z vx vy vz 
9.84966 -8.82252 -7.53034 0.00349886 0.00216064 -0.000194383 
9.56817 -7.94461 -7.14299 0.00693178 9.32804e-05 0.0069518 
-2.72236 -3.69285 -3.4534 0.00296919 0.0111608 -0.0153593 
-1.95165 -3.4866 -2.85052 -0.00176405 -0.00625071 -0.00339167 
-0.332422 1.67023 -2.47524 0.00432601 -0.0049261 -0.0126303 
-0.766818 0.801105 -2.7117 -0.00100362 -0.00491791 -0.0030236 
-5.05785 -2.57249 -3.57525 -0.00155763 -0.00897554 -0.0112519 
-8.10896 -1.8468 -3.8996 0.00364543 -0.00525318 0.00887812 
-2.07938 -0.573891 -1.85987 0.0212432 -0.00591769 -0.0128827 
-0.83703 -1.57103 -6.5028 -0.00164852 -0.00197394 -0.00371396 
-1.35893 -2.19644 -7.08288 0.0146731 -0.0110117 -0.00910384 
-1.68165 -4.3148 -2.35942 -0.0235176 -0.0139887 -0.00461339 
-3.6901 -2.46808 -7.30862 -0.000286128 -0.00335434 0.00402113 
-3.00451 -3.04154 -7.75707 -0.00306798 -0.0046459 0.00140842 
-3.45729 -3.80836 -8.21202 -0.00597188 -0.00533544 0.00546653 
-2.51098 -1.34918 -1.39873 -0.000906525 0.00945255 -0.00785555 
-2.60654 -2.10867 -2.04219 -0.00530482 0.00126154 0.00251143 
-4.33621 -5.39434 -4.83018 -0.00723737 0.00377319 5.80636e-06 
-3.77231 -4.56859 -4.84257 -8.46289e-07 -0.00120301 -0.00133042 
-3.17557 -4.58446 -5.64485 0.00315243 -0.00994003 0.00118253 
-6.93302 -5.04556 -6.73803 0.00187045 0.00507102 0.000797822 
-4.39873 0.31395 -1.3368 0.0163052 0.00853818 -0.0127688 
-6.39131 -1.84247 -6.8167 0.00766286 0.000353575 -0.00555675 
-5.65582 -2.49684 -6.64102 0.00774741 -0.000428748 -0.00875477 
-6.02936 -3.42443 -6.63483 0.000821795 0.00244352 0.0263122 
-2.46156 -0.384144 -9.18825 -0.00447695 0.0048588 0.00155014 
-2.31434 -6.71755 -2.36644 -0.00788292 -0.0157027 0.0159173 
-2.20936 -6.01799 -1.65963 0.000451133 0.00229037 -0.00305104 
-1.88161 -6.44312 -0.815921 -0.00597405 0.0211886 0.00897955 
-2.52802 -1.31298 -8.82378 -0.0104364 -0.00496807 -0.0246522 
-6.8253 -5.52351 -5.86628 0.00388878 -0.0336065 -0.0205641 
-4.37583 -5.83382 -7.80669 -0.00528095 -0.00129745 0.00605047 
-6.3363 -7.123 -4.61131 0.00567648 0.000219817 -0.000424851 
-7.90451 -4.88453 -6.91208 0.000183275 -0.0046365 0.00100986 
-5.30189 -5.64712 -7.47873 -0.00616394 -0.000783026 0.00323606 
-5.42625 9.85606 -7.5612 -0.000835188 -0.0014636 -0.000886205 
-5.42926 9.20937 -6.79846 -0.0104335 -0.00740433 -0.00594256 
-1.9208 -7.67735 -4.65425 0.00727111 -0.00265193 0.00919932 
-2.3614 -7.90796 -3.78667 -0.000285623 -0.00576811 0.00454579 
-3.32829 -8.10701 -3.94639 -0.00431733 0.0182549 -0.00115527 
-0.129438 -1.81668 -3.91977 -0.00075669 -0.00102688 0.00530865 
0.0322196 -0.928318 -3.49003 -0.0074444 0.000915514 0.00378263 
-6.16168 9.62406 -8.19784 -0.000232684 0.0106282 -0.00595807 
-4.43754 10.1847 -4.08679 0.00440738 0.00562256 -0.00338592 
-6.12321 -7.96217 -4.11091 -0.0104631 -0.0187229 -0.0249875 
8.72307 -6.55213 -6.07566 0.000247797 0.00403127 0.00172783 
8.47984 -5.94428 -5.31978 0.0127386 0.00288879 0.00660387 
-7.86329 -3.4612 -3.89341 -0.0102421 -0.00742881 -0.0253963 
-1.59725 -8.02109 0.126771 -0.00260029 0.00199042 0.00368328 
-1.29091 -8.42019 0.990989 0.00929851 0.00348694 0.000186111 
-3.26901 8.82197 -4.71737 -0.00443621 -0.0038429 -0.00158472 
-3.5127 8.14228 -5.4092 0.00268204 -0.00665296 -0.00130925 
-6.33363 -7.31079 -5.59351 0.0172274 0.0325343 -0.00676414 
-5.08051 -9.33129 -3.49324 0.00359622 0.00374995 -0.0027086 
-8.8091 -1.56172 -6.51343 -0.00554256 0.0189354 -0.00622392 
-8.02293 -1.12963 -6.95528 0.00486529 0.00407233 -0.00230437 
-8.33975 -0.547362 -7.704 0.0218965 -0.0146147 -0.0241397 
0.312415 -2.87254 -0.389823 0.0255787 0.00830599 0.0306247 
-8.5562 -2.74086 -3.92471 -0.0045957 -0.000839872 0.000393139 
-2.09221 -8.95853 -2.60772 0.0342634 -0.00170009 0.00884971 
-2.05204 -9.77503 -2.03178 -0.00101752 -0.00926236 0.000807811 
-0.505933 -2.45033 -3.24394 0.00332272 -0.00253886 0.00620794 
-1.3948 -8.65211 -0.622116 0.0103715 0.0115568 -0.00105977 
-1.56141 9.49993 -2.5151 0.0108251 -0.00953702 0.0133288 
-1.6871 -6.5025 -6.34328 -0.0194219 -0.00365832 0.0394566 
-5.78928 -2.00025 -3.94613 0.00384086 -0.00132412 -0.010037 
-5.80288 -2.08105 -4.94277 0.0184052 0.0192985 -0.0118741 
-0.996015 0.796945 -3.68507 -0.0284854 -0.00234543 0.00357993 
1.08004 -0.754919 -6.17637 -0.000597944 0.00670305 0.00236218 
7.96456 -7.17789 -6.25754 -0.0116381 0.0194377 -0.00167544 
0.120057 -1.54391 -1.31956 -0.0225414 -0.0240257 -0.00568962 
0.769918 -2.24031 -1.01511 -0.00165831 -0.00190892 0.000434071 
-1.71935 -0.340785 10.143 -0.0166087 0.0143465 -0.0113315 
6.74976 -8.71705 -6.04132 -0.00579114 -0.00361629 0.00477394 
7.52883 -9.34287 -6.07871 -0.00767153 -0.00500753 -0.0132297 
9.96715 -5.56702 -6.5626 -0.00952494 0.0152316 -0.0197162 
7.57163 -3.81359 -7.43517 0.00806955 0.0153152 0.00444826 
0.701337 -3.26255 -4.60225 0.00189713 0.00133136 0.00286253 
6.75078 -2.63393 -6.65973 -0.00041784 0.00223682 0.0154012 
1.24905 -3.99927 -4.9988 6.80627e-05 0.00320594 -0.00312234 
3.60813 -2.87461 -2.1469 -0.00683373 -0.00361471 0.00169628 
2.76904 -2.37958 -1.92133 -0.00406812 0.00361167 -0.00371507 
-0.258721 -4.55847 -5.89301 0.016852 -0.0147554 -0.00479913 
4.37517 -2.47744 -1.64301 -0.00456297 -0.00233238 -0.00282257 
5.82923 -5.97519 -4.64241 -0.00254825 0.00394657 -4.01046e-05 
6.7057 -4.31889 -9.28658 -0.0029437 -0.0119397 0.00102752 
6.0531 -6.93992 -4.50392 -0.00505899 0.00297896 -0.00279646 
7.56409 -4.34865 10.2013 0.000183981 -0.00018499 0.00554506 
6.21418 -3.47677 -9.50847 -0.00449048 -0.00977598 0.0125619 
8.95357 -1.48535 -5.4879 -0.00582313 -0.00327869 0.00529895 
-0.979903 -4.90502 -6.49284 0.00990541 -0.000862742 -0.00442915 
-1.17352 -4.23066 -7.2054 0.0100062 0.0105563 0.0063581 
3.19293 -5.21489 -3.40298 -0.00289747 -0.00673909 -0.00185138 
4.08803 -5.6073 -3.61465 0.00186987 0.016188 -0.0237881 
7.95537 -4.46682 -4.10192 -0.00169699 -0.00444346 0.0017829 
3.3144 -4.36427 -2.89144 -0.0124034 -0.011163 0.00777386 
7.50699 -4.17399 -4.94643 -0.00714534 -0.00421523 0.00472973 
8.6583 -3.80176 -3.84979 -0.0275332 0.0163401 0.019186 
9.58873 -2.14273 -5.8934 -0.00376364 0.00212146 -0.000332346 
-9.83519 -2.53541 -5.1765 -0.0189897 -0.020064 -0.000116723 
4.9874 -5.9018 -7.67242 -0.00393382 -0.000558241 0.00288068 
5.59773 -5.48764 -8.34767 0.00999137 -0.0405463 -0.00922933 
7.1257 -3.55734 -6.57756 0.00520764 0.00373241 0.00647872 
3.49202 -5.63721 -6.96816 8.49038e-05 -0.00272772 -5.01964e-05 
2.61424 -5.9306 -6.58946 -0.00513368 0.00341218 -0.00747953 
2.18857 -5.16686 -6.10417 -0.00669844 0.00809033 -0.0162024 
3.93187 -2.20224 -7.30621 -0.00439924 -0.00224642 -0.0105669 
5.48545 -6.04673 -6.81747 -0.00901807 0.00842166 0.00736403 
3.39579 -1.70719 -7.98998 -0.00946525 0.00327817 -0.00260099 
2.4984 -2.1379 -8.08575 -0.000284826 -0.0121133 -0.0189299 
5.9449 -1.26378 -1.75715 0.00130957 0.00343533 -2.24405e-05 
6.54596 -5.40559 -4.2401 0.0099638 0.00076185 -0.0178121 
1.96277 -4.26905 -4.35241 0.0194806 0.0179929 -0.0183816 
0.372096 -0.0818452 9.94708 -0.00159748 0.00574376 -0.00708803 
0.549717 0.750229 -9.52747 0.0220364 -0.00316147 -0.00112403 
4.53385 -1.7473 -9.59871 0.0160767 0.0193232 0.0115399 
1.59839 -9.27598 -5.22268 0.021821 -0.00155598 0.0163839 
-0.105101 -7.52007 -7.93845 0.00101832 -0.0173844 0.0368866 
-2.08517 -7.38163 -6.60531 0.000134016 -0.000363438 -0.00291724 
1.46622 -7.09437 -7.81036 -0.00110963 0.00300912 -0.00468391 
0.831296 -7.7703 -8.1845 -0.0031575 0.000649887 0.00300699 
-1.3223 9.80743 -6.54898 -0.000843013 -0.00242216 0.00215337 
0.899105 -2.47605 -8.54969 2.42213e-05 0.0108005 -0.00422158 
1.09432 -3.42931 -8.78032 -0.012744 0.0146153 -0.0305899 
0.339831 -2.44128 -7.72144 -0.0165625 -0.00534678 -0.0146379 
5.25261 -2.11196 9.80934 -0.00328157 -0.00444195 0.00278597 
5.07607 -1.83895 8.86366 0.00362467 0.0158606 0.00738501 
5.65354 -0.531146 -2.37225 0.00124897 0.00510279 0.00201793 
-1.67307 -9.25931 -6.4717 0.0226382 0.00752475 -0.0123567 
2.57661 -0.551748 -6.79741 -0.00105815 -0.000954606 -0.00125566 
5.98189 -9.11007 -6.54719 -0.0123254 0.00570831 0.00746884 
2.20425 -7.69212 -4.72635 -0.00176902 0.000758321 0.00179022 
2.15737 -7.04224 -3.96776 0.00138449 -0.00347286 0.00557627 
6.72078 -1.74887 -2.16051 -0.00121039 0.00205946 -0.00324297 
2.30698 -7.19317 -5.58687 -0.00884386 0.00569917 0.00379585 
4.78998 -3.80454 -5.54359 0.00881175 0.00241013 -0.00481117 
4.91798 -2.20424 -5.84246 -0.0131227 0.00462239 -0.00246288 
4.30266 -2.93134 -5.53798 -0.00273055 -0.00404309 -0.00209784 
7.95439 -0.106708 -4.97311 -0.00452937 -0.00430357 -0.00125294 
7.21026 0.121251 -4.34517 -0.0023145 -0.00876532 0.00300146 
-9.55333 -4.69402 -6.47356 0.00624978 0.00364025 0.0103458 
9.78006 -3.9493 -6.44155 0.0209517 0.0169253 0.00405447 
9.33435 -9.56004 -7.09385 -0.00393591 0.00110007 -0.0106255 
-0.960086 -1.82512 -5.54348 0.00922014 -0.0168241 -0.0062298 
-5.05572 0.455292 -2.07733 0.00359538 -0.00690926 -0.00446071 
-9.64414 0.827853 -8.27558 0.00218191 -0.00137594 0.0018583 
-2.2745 8.92075 -4.6829 -0.00420534 -0.0131841 0.0173614 
9.67401 1.07978 -7.58884 -0.00658463 0.00851031 -0.0104674 
-9.00024 -9.91275 -7.81214 0.0063961 0.0045397 -0.00114769 
-4.77416 -9.39993 -2.5438 0.0105472 0.013554 -0.0042166 
-5.3 -0.427223 -2.47919 0.00826727 -0.0139608 0.00812035 
-0.419064 8.51536 -3.5813 0.00698635 -0.000958869 0.0072309 
0.290228 8.82369 -4.21521 0.00462581 -0.0191142 -0.00430855 
8.372 2.8528 -5.60043 -0.00611368 0.00292851 -0.011627 
9.67994 2.753 -6.57306 0.00471443 -0.00536844 0.00375086 
8.85143 2.28333 -6.26814 0.00129229 -0.00274362 -0.00150744 
-4.40955 3.14584 -8.40853 0.00309682 -0.00912622 -0.00616648 
-2.80149 1.46928 -9.10889 -0.00623642 0.00062174 0.00319963 
-1.82273 2.74522 -8.82481 -0.00222824 -0.00181602 0.000390518 
-7.06687 0.515358 -6.21314 0.0216525 -0.00797533 0.0162871 
-7.48172 1.54088 -5.01193 0.0102707 -0.00495225 0.00984308 
-6.90592 1.42093 -5.82067 -0.00177919 0.00332589 9.56569e-05 
-5.25179 3.64108 -8.6215 0.00186156 -0.00715462 0.00349709 
-5.66533 3.25607 -9.44657 -0.00614132 -0.00326752 0.00572376 
-7.77092 9.53566 -6.88953 0.00871528 0.00982272 -0.00104149 
-5.07556 1.78289 -5.85971 -0.00109031 -0.00329659 -0.00461868 
-2.77279 2.43395 -8.847 -0.00289148 -0.000207068 0.00594824 
-7.9704 6.79032 -3.03245 0.0325396 0.00725897 -0.0166564 
-9.46009 2.73776 -1.16909 0.0107464 -0.0375688 0.0171997 
-2.90991 3.61491 -5.91028 0.00332204 -0.0044966 -0.00110817 
-3.69225 6.06523 -7.42663 -0.00127108 -0.00543935 -0.00366954 
-4.24449 1.95247 -5.33004 0.00281875 -0.000326955 -0.0117374 
-9.30726 6.75998 -3.96976 0.00378263 -0.0175546 0.0251467 
-8.4042 7.17206 -3.84859 -0.000451094 -7.1889e-05 -0.00252979 
-4.25594 5.45248 -7.98052 -0.00916091 -0.0095472 0.00899208 
-4.46143 1.93291 -4.35405 0.0146938 -0.0184758 -0.00953009 
-1.57944 3.98178 -6.78319 0.00600514 0.000582385 0.0051065 
-2.15369 4.26103 -6.0136 0.00101633 -0.00128827 0.00206558 
-0.0728813 2.28028 -6.33379 -0.0138442 0.00848219 0.0366563 
0.873449 2.5212 -6.11835 -0.0044171 0.00138852 0.00139411 
-6.14839 7.22053 -5.28409 -0.00948102 -0.00760486 0.0015992 
-4.6693 6.66572 -5.69781 -0.00957033 0.00375759 -0.0138677 
-5.50604 6.45987 -5.19037 0.000988192 0.00131461 0.00234879 
-8.64334 4.69078 -6.84772 -0.00621377 -0.00355222 0.0169832 