Untitled

300 atoms
200 bonds
100 angles
0 dihedrals
0 impropers

2 atom types
200 bond types
100 angle types

 -9.9943300  10.0056700 xlo xhi
 -9.9461432  10.0538568 ylo yhi
 -9.7533400  10.2466600 zlo zhi

Masses

1  15.9994000
2   1.0080000

Bond Coeffs

1 harmonic    1.07552581e+00    1.00000000e+00
2 harmonic    1.07552581e+00    1.00000000e+00
3 harmonic    1.07552581e+00    1.00000000e+00
4 harmonic    1.07552581e+00    1.00000000e+00
5 harmonic    1.07552581e+00    1.00000000e+00
6 harmonic    1.07552581e+00    1.00000000e+00
7 harmonic    1.07552581e+00    1.00000000e+00
8 harmonic    1.07552581e+00    1.00000000e+00
9 harmonic    1.07552581e+00    1.00000000e+00
10 harmonic    1.07552581e+00    1.00000000e+00
11 harmonic    1.07552581e+00    1.00000000e+00
12 harmonic    1.07552581e+00    1.00000000e+00
13 harmonic    1.07552581e+00    1.00000000e+00
14 harmonic    1.07552581e+00    1.00000000e+00
15 harmonic    1.07552581e+00    1.00000000e+00
16 harmonic    1.07552581e+00    1.00000000e+00
17 harmonic    1.07552581e+00    1.00000000e+00
18 harmonic    1.07552581e+00    1.00000000e+00
19 harmonic    1.07552581e+00    1.00000000e+00
20 harmonic    1.07552581e+00    1.00000000e+00
21 harmonic    1.07552581e+00    1.00000000e+00
22 harmonic    1.07552581e+00    1.00000000e+00
23 harmonic    1.07552581e+00    1.00000000e+00
24 harmonic    1.07552581e+00    1.00000000e+00
25 harmonic    1.07552581e+00    1.00000000e+00
26 harmonic    1.07552581e+00    1.00000000e+00
27 harmonic    1.07552581e+00    1.00000000e+00
28 harmonic    1.07552581e+00    1.00000000e+00
29 harmonic    1.07552581e+00    1.00000000e+00
30 harmonic    1.07552581e+00    1.00000000e+00
31 harmonic    1.07552581e+00    1.00000000e+00
32 harmonic    1.07552581e+00    1.00000000e+00
33 harmonic    1.07552581e+00    1.00000000e+00
34 harmonic    1.07552581e+00    1.00000000e+00
35 harmonic    1.07552581e+00    1.00000000e+00
36 harmonic    1.07552581e+00    1.00000000e+00
37 harmonic    1.07552581e+00    1.00000000e+00
38 harmonic    1.07552581e+00    1.00000000e+00
39 harmonic    1.07552581e+00    1.00000000e+00
40 harmonic    1.07552581e+00    1.00000000e+00
41 harmonic    1.07552581e+00    1.00000000e+00
42 harmonic    1.07552581e+00    1.00000000e+00
43 harmonic    1.07552581e+00    1.00000000e+00
44 harmonic    1.07552581e+00    1.00000000e+00
45 harmonic    1.07552581e+00    1.00000000e+00
46 harmonic    1.07552581e+00    1.00000000e+00
47 harmonic    1.07552581e+00    1.00000000e+00
48 harmonic    1.07552581e+00    1.00000000e+00
49 harmonic    1.07552581e+00    1.00000000e+00
50 harmonic    1.07552581e+00    1.00000000e+00
51 harmonic    1.07552581e+00    1.00000000e+00
52 harmonic    1.07552581e+00    1.00000000e+00
53 harmonic    1.07552581e+00    1.00000000e+00
54 harmonic    1.07552581e+00    1.00000000e+00
55 harmonic    1.07552581e+00    1.00000000e+00
56 harmonic    1.07552581e+00    1.00000000e+00
57 harmonic    1.07552581e+00    1.00000000e+00
58 harmonic    1.07552581e+00    1.00000000e+00
59 harmonic    1.07552581e+00    1.00000000e+00
60 harmonic    1.07552581e+00    1.00000000e+00
61 harmonic    1.07552581e+00    1.00000000e+00
62 harmonic    1.07552581e+00    1.00000000e+00
63 harmonic    1.07552581e+00    1.00000000e+00
64 harmonic    1.07552581e+00    1.00000000e+00
65 harmonic    1.07552581e+00    1.00000000e+00
66 harmonic    1.07552581e+00    1.00000000e+00
67 harmonic    1.07552581e+00    1.00000000e+00
68 harmonic    1.07552581e+00    1.00000000e+00
69 harmonic    1.07552581e+00    1.00000000e+00
70 harmonic    1.07552581e+00    1.00000000e+00
71 harmonic    1.07552581e+00    1.00000000e+00
72 harmonic    1.07552581e+00    1.00000000e+00
73 harmonic    1.07552581e+00    1.00000000e+00
74 harmonic    1.07552581e+00    1.00000000e+00
75 harmonic    1.07552581e+00    1.00000000e+00
76 harmonic    1.07552581e+00    1.00000000e+00
77 harmonic    1.07552581e+00    1.00000000e+00
78 harmonic    1.07552581e+00    1.00000000e+00
79 harmonic    1.07552581e+00    1.00000000e+00
80 harmonic    1.07552581e+00    1.00000000e+00
81 harmonic    1.07552581e+00    1.00000000e+00
82 harmonic    1.07552581e+00    1.00000000e+00
83 harmonic    1.07552581e+00    1.00000000e+00
84 harmonic    1.07552581e+00    1.00000000e+00
85 harmonic    1.07552581e+00    1.00000000e+00
86 harmonic    1.07552581e+00    1.00000000e+00
87 harmonic    1.07552581e+00    1.00000000e+00
88 harmonic    1.07552581e+00    1.00000000e+00
89 harmonic    1.07552581e+00    1.00000000e+00
90 harmonic    1.07552581e+00    1.00000000e+00
91 harmonic    1.07552581e+00    1.00000000e+00
92 harmonic    1.07552581e+00    1.00000000e+00
93 harmonic    1.07552581e+00    1.00000000e+00
94 harmonic    1.07552581e+00    1.00000000e+00
95 harmonic    1.07552581e+00    1.00000000e+00
96 harmonic    1.07552581e+00    1.00000000e+00
97 harmonic    1.07552581e+00    1.00000000e+00
98 harmonic    1.07552581e+00    1.00000000e+00
99 harmonic    1.07552581e+00    1.00000000e+00
100 harmonic    1.07552581e+00    1.00000000e+00
101 harmonic    1.07552581e+00    1.00000000e+00
102 harmonic    1.07552581e+00    1.00000000e+00
103 harmonic    1.07552581e+00    1.00000000e+00
104 harmonic    1.07552581e+00    1.00000000e+00
105 harmonic    1.07552581e+00    1.00000000e+00
106 harmonic    1.07552581e+00    1.00000000e+00
107 harmonic    1.07552581e+00    1.00000000e+00
108 harmonic    1.07552581e+00    1.00000000e+00
109 harmonic    1.07552581e+00    1.00000000e+00
110 harmonic    1.07552581e+00    1.00000000e+00
111 harmonic    1.07552581e+00    1.00000000e+00
112 harmonic    1.07552581e+00    1.00000000e+00
113 harmonic    1.07552581e+00    1.00000000e+00
114 harmonic    1.07552581e+00    1.00000000e+00
115 harmonic    1.07552581e+00    1.00000000e+00
116 harmonic    1.07552581e+00    1.00000000e+00
117 harmonic    1.07552581e+00    1.00000000e+00
118 harmonic    1.07552581e+00    1.00000000e+00
119 harmonic    1.07552581e+00    1.00000000e+00
120 harmonic    1.07552581e+00    1.00000000e+00
121 harmonic    1.07552581e+00    1.00000000e+00
122 harmonic    1.07552581e+00    1.00000000e+00
123 harmonic    1.07552581e+00    1.00000000e+00
124 harmonic    1.07552581e+00    1.00000000e+00
125 harmonic    1.07552581e+00    1.00000000e+00
126 harmonic    1.07552581e+00    1.00000000e+00
127 harmonic    1.07552581e+00    1.00000000e+00
128 harmonic    1.07552581e+00    1.00000000e+00
129 harmonic    1.07552581e+00    1.00000000e+00
130 harmonic    1.07552581e+00    1.00000000e+00
131 harmonic    1.07552581e+00    1.00000000e+00
132 harmonic    1.07552581e+00    1.00000000e+00
133 harmonic    1.07552581e+00    1.00000000e+00
134 harmonic    1.07552581e+00    1.00000000e+00
135 harmonic    1.07552581e+00    1.00000000e+00
136 harmonic    1.07552581e+00    1.00000000e+00
137 harmonic    1.07552581e+00    1.00000000e+00
138 harmonic    1.07552581e+00    1.00000000e+00
139 harmonic    1.07552581e+00    1.00000000e+00
140 harmonic    1.07552581e+00    1.00000000e+00
141 harmonic    1.07552581e+00    1.00000000e+00
142 harmonic    1.07552581e+00    1.00000000e+00
143 harmonic    1.07552581e+00    1.00000000e+00
144 harmonic    1.07552581e+00    1.00000000e+00
145 harmonic    1.07552581e+00    1.00000000e+00
146 harmonic    1.07552581e+00    1.00000000e+00
147 harmonic    1.07552581e+00    1.00000000e+00
148 harmonic    1.07552581e+00    1.00000000e+00
149 harmonic    1.07552581e+00    1.00000000e+00
150 harmonic    1.07552581e+00    1.00000000e+00
151 harmonic    1.07552581e+00    1.00000000e+00
152 harmonic    1.07552581e+00    1.00000000e+00
153 harmonic    1.07552581e+00    1.00000000e+00
154 harmonic    1.07552581e+00    1.00000000e+00
155 harmonic    1.07552581e+00    1.00000000e+00
156 harmonic    1.07552581e+00    1.00000000e+00
157 harmonic    1.07552581e+00    1.00000000e+00
158 harmonic    1.07552581e+00    1.00000000e+00
159 harmonic    1.07552581e+00    1.00000000e+00
160 harmonic    1.07552581e+00    1.00000000e+00
161 harmonic    1.07552581e+00    1.00000000e+00
162 harmonic    1.07552581e+00    1.00000000e+00
163 harmonic    1.07552581e+00    1.00000000e+00
164 harmonic    1.07552581e+00    1.00000000e+00
165 harmonic    1.07552581e+00    1.00000000e+00
166 harmonic    1.07552581e+00    1.00000000e+00
167 harmonic    1.07552581e+00    1.00000000e+00
168 harmonic    1.07552581e+00    1.00000000e+00
169 harmonic    1.07552581e+00    1.00000000e+00
170 harmonic    1.07552581e+00    1.00000000e+00
171 harmonic    1.07552581e+00    1.00000000e+00
172 harmonic    1.07552581e+00    1.00000000e+00
173 harmonic    1.07552581e+00    1.00000000e+00
174 harmonic    1.07552581e+00    1.00000000e+00
175 harmonic    1.07552581e+00    1.00000000e+00
176 harmonic    1.07552581e+00    1.00000000e+00
177 harmonic    1.07552581e+00    1.00000000e+00
178 harmonic    1.07552581e+00    1.00000000e+00
179 harmonic    1.07552581e+00    1.00000000e+00
180 harmonic    1.07552581e+00    1.00000000e+00
181 harmonic    1.07552581e+00    1.00000000e+00
182 harmonic    1.07552581e+00    1.00000000e+00
183 harmonic    1.07552581e+00    1.00000000e+00
184 harmonic    1.07552581e+00    1.00000000e+00
185 harmonic    1.07552581e+00    1.00000000e+00
186 harmonic    1.07552581e+00    1.00000000e+00
187 harmonic    1.07552581e+00    1.00000000e+00
188 harmonic    1.07552581e+00    1.00000000e+00
189 harmonic    1.07552581e+00    1.00000000e+00
190 harmonic    1.07552581e+00    1.00000000e+00
191 harmonic    1.07552581e+00    1.00000000e+00
192 harmonic    1.07552581e+00    1.00000000e+00
193 harmonic    1.07552581e+00    1.00000000e+00
194 harmonic    1.07552581e+00    1.00000000e+00
195 harmonic    1.07552581e+00    1.00000000e+00
196 harmonic    1.07552581e+00    1.00000000e+00
197 harmonic    1.07552581e+00    1.00000000e+00
198 harmonic    1.07552581e+00    1.00000000e+00
199 harmonic    1.07552581e+00    1.00000000e+00
200 harmonic    1.07552581e+00    1.00000000e+00

Angle Coeffs

1 harmonic    1.56921910e+05    1.09471899e+02
2 harmonic    1.56921910e+05    1.09471899e+02
3 harmonic    1.56921910e+05    1.09471899e+02
4 harmonic    1.56921910e+05    1.09471899e+02
5 harmonic    1.56921910e+05    1.09471899e+02
6 harmonic    1.56921910e+05    1.09471899e+02
7 harmonic    1.56921910e+05    1.09471899e+02
8 harmonic    1.56921910e+05    1.09471899e+02
9 harmonic    1.56921910e+05    1.09471899e+02
10 harmonic    1.56921910e+05    1.09471899e+02
11 harmonic    1.56921910e+05    1.09471899e+02
12 harmonic    1.56921910e+05    1.09471899e+02
13 harmonic    1.56921910e+05    1.09471899e+02
14 harmonic    1.56921910e+05    1.09471899e+02
15 harmonic    1.56921910e+05    1.09471899e+02
16 harmonic    1.56921910e+05    1.09471899e+02
17 harmonic    1.56921910e+05    1.09471899e+02
18 harmonic    1.56921910e+05    1.09471899e+02
19 harmonic    1.56921910e+05    1.09471899e+02
20 harmonic    1.56921910e+05    1.09471899e+02
21 harmonic    1.56921910e+05    1.09471899e+02
22 harmonic    1.56921910e+05    1.09471899e+02
23 harmonic    1.56921910e+05    1.09471899e+02
24 harmonic    1.56921910e+05    1.09471899e+02
25 harmonic    1.56921910e+05    1.09471899e+02
26 harmonic    1.56921910e+05    1.09471899e+02
27 harmonic    1.56921910e+05    1.09471899e+02
28 harmonic    1.56921910e+05    1.09471899e+02
29 harmonic    1.56921910e+05    1.09471899e+02
30 harmonic    1.56921910e+05    1.09471899e+02
31 harmonic    1.56921910e+05    1.09471899e+02
32 harmonic    1.56921910e+05    1.09471899e+02
33 harmonic    1.56921910e+05    1.09471899e+02
34 harmonic    1.56921910e+05    1.09471899e+02
35 harmonic    1.56921910e+05    1.09471899e+02
36 harmonic    1.56921910e+05    1.09471899e+02
37 harmonic    1.56921910e+05    1.09471899e+02
38 harmonic    1.56921910e+05    1.09471899e+02
39 harmonic    1.56921910e+05    1.09471899e+02
40 harmonic    1.56921910e+05    1.09471899e+02
41 harmonic    1.56921910e+05    1.09471899e+02
42 harmonic    1.56921910e+05    1.09471899e+02
43 harmonic    1.56921910e+05    1.09471899e+02
44 harmonic    1.56921910e+05    1.09471899e+02
45 harmonic    1.56921910e+05    1.09471899e+02
46 harmonic    1.56921910e+05    1.09471899e+02
47 harmonic    1.56921910e+05    1.09471899e+02
48 harmonic    1.56921910e+05    1.09471899e+02
49 harmonic    1.56921910e+05    1.09471899e+02
50 harmonic    1.56921910e+05    1.09471899e+02
51 harmonic    1.56921910e+05    1.09471899e+02
52 harmonic    1.56921910e+05    1.09471899e+02
53 harmonic    1.56921910e+05    1.09471899e+02
54 harmonic    1.56921910e+05    1.09471899e+02
55 harmonic    1.56921910e+05    1.09471899e+02
56 harmonic    1.56921910e+05    1.09471899e+02
57 harmonic    1.56921910e+05    1.09471899e+02
58 harmonic    1.56921910e+05    1.09471899e+02
59 harmonic    1.56921910e+05    1.09471899e+02
60 harmonic    1.56921910e+05    1.09471899e+02
61 harmonic    1.56921910e+05    1.09471899e+02
62 harmonic    1.56921910e+05    1.09471899e+02
63 harmonic    1.56921910e+05    1.09471899e+02
64 harmonic    1.56921910e+05    1.09471899e+02
65 harmonic    1.56921910e+05    1.09471899e+02
66 harmonic    1.56921910e+05    1.09471899e+02
67 harmonic    1.56921910e+05    1.09471899e+02
68 harmonic    1.56921910e+05    1.09471899e+02
69 harmonic    1.56921910e+05    1.09471899e+02
70 harmonic    1.56921910e+05    1.09471899e+02
71 harmonic    1.56921910e+05    1.09471899e+02
72 harmonic    1.56921910e+05    1.09471899e+02
73 harmonic    1.56921910e+05    1.09471899e+02
74 harmonic    1.56921910e+05    1.09471899e+02
75 harmonic    1.56921910e+05    1.09471899e+02
76 harmonic    1.56921910e+05    1.09471899e+02
77 harmonic    1.56921910e+05    1.09471899e+02
78 harmonic    1.56921910e+05    1.09471899e+02
79 harmonic    1.56921910e+05    1.09471899e+02
80 harmonic    1.56921910e+05    1.09471899e+02
81 harmonic    1.56921910e+05    1.09471899e+02
82 harmonic    1.56921910e+05    1.09471899e+02
83 harmonic    1.56921910e+05    1.09471899e+02
84 harmonic    1.56921910e+05    1.09471899e+02
85 harmonic    1.56921910e+05    1.09471899e+02
86 harmonic    1.56921910e+05    1.09471899e+02
87 harmonic    1.56921910e+05    1.09471899e+02
88 harmonic    1.56921910e+05    1.09471899e+02
89 harmonic    1.56921910e+05    1.09471899e+02
90 harmonic    1.56921910e+05    1.09471899e+02
91 harmonic    1.56921910e+05    1.09471899e+02
92 harmonic    1.56921910e+05    1.09471899e+02
93 harmonic    1.56921910e+05    1.09471899e+02
94 harmonic    1.56921910e+05    1.09471899e+02
95 harmonic    1.56921910e+05    1.09471899e+02
96 harmonic    1.56921910e+05    1.09471899e+02
97 harmonic    1.56921910e+05    1.09471899e+02
98 harmonic    1.56921910e+05    1.09471899e+02
99 harmonic    1.56921910e+05    1.09471899e+02
100 harmonic    1.56921910e+05    1.09471899e+02

Atoms

     1      1      1 -0.84760000   -5.2213090   -8.3841304   -8.2280157
     2      1      2 0.42380000   -5.9483860   -9.0119632   -7.9501938
     3      1      2 0.42380000   -4.8514932   -8.6723630   -9.1112814
     4      2      1 -0.84760000   -1.9041565   -5.4021004   -8.5481730
     5      2      2 0.42380000   -1.2874880   -4.6986944   -8.9016416
     6      2      2 0.42380000   -2.1221679   -6.0510996   -9.2770565
     7      3      1 -0.84760000   -4.4551937   -1.6077301   -9.1201989
     8      3      2 0.42380000   -4.1557197   -0.6536446   -9.1262138
     9      3      2 0.42380000   -4.1263071   -2.0550733   -8.2885032
    10      4      1 -0.84760000   -0.6156139    1.5244918   -8.0729043
    11      4      2 0.42380000   -0.8702470    2.4725393   -8.2636081
    12      4      2 0.42380000   -0.8313480    1.3064266   -7.1211132
    13      5      1 -0.84760000    4.7719824   -7.3335717   -8.3052754
    14      5      2 0.42380000    4.7859516   -6.3469293   -8.4675763
    15      5      2 0.42380000    5.3510505   -7.5503101   -7.5193335
    16      6      1 -0.84760000    2.2430994   -7.1735677   -9.1244815
    17      6      2 0.42380000    1.6778435   -7.9880789   -8.9938777
    18      6      2 0.42380000    3.1682773   -7.3527587   -8.7899124
    19      7      1 -0.84760000   -7.6585888   -9.0403577   -7.2479172
    20      7      2 0.42380000   -7.6523384   -8.3617595   -6.5134341
    21      7      2 0.42380000   -8.6033269   -9.2504908   -7.4995397
    22      8      1 -0.84760000    1.0663418   -7.8079900   -4.8037228
    23      8      2 0.42380000    1.2838516   -6.8625746   -4.5610724
    24      8      2 0.42380000    1.8920336   -8.2659786   -5.1330851
    25      9      1 -0.84760000    9.5401154   -9.0973514   -7.8685106
    26      9      2 0.42380000    8.7500990   -9.4080289   -7.3399715
    27      9      2 0.42380000    9.3926852   -8.1537107   -8.1648323
    28     10      1 -0.84760000   -6.3830212    8.6766218   -6.8263920
    29     10      2 0.42380000   -6.1535702    8.7050081   -5.8534858
    30     10      2 0.42380000   -7.1887743    9.2442116   -6.9955184
    31     11      1 -0.84760000   -1.2610474   -8.4566369   -5.7052090
    32     11      2 0.42380000   -1.9380714   -7.7214439   -5.7388205
    33     11      2 0.42380000   -0.3818293   -8.0866308   -5.4050905
    34     12      1 -0.84760000    6.9364474    9.0656993   -8.6871322
    35     12      2 0.42380000    7.7095650    8.8751892   -8.0821568
    36     12      2 0.42380000    7.1390165    9.8718448   -9.2430955
    37     13      1 -0.84760000   -0.3412676   -2.8172697   -8.7756327
    38     13      2 0.42380000    0.1433836   -3.4091233   -9.4196998
    39     13      2 0.42380000    0.1301582   -1.9376877   -8.7116540
    40     14      1 -0.84760000    7.4173425   -3.4155037   -7.5768576
    41     14      2 0.42380000    6.5616825   -3.6413640   -8.0425111
    42     14      2 0.42380000    8.1553610   -3.9829834   -7.9419542
    43     15      1 -0.84760000    4.9177518    0.6384378   -7.8633639
    44     15      2 0.42380000    3.9687283    0.8196838   -8.1212479
    45     15      2 0.42380000    4.9722732   -0.2402329   -7.3890588
    46     16      1 -0.84760000    7.8158571    9.6384011   -5.9248479
    47     16      2 0.42380000    7.7166646    8.6989407   -5.5968617
    48     16      2 0.42380000    8.6236998   -9.9461432   -5.5067728
    49     17      1 -0.84760000    5.4588336   -1.6480837   -6.5404831
    50     17      2 0.42380000    6.2258525   -1.9452239   -7.1091567
    51     17      2 0.42380000    4.9699374   -2.4491793   -6.1951913
    52     18      1 -0.84760000    8.8615888   -5.8444143   -5.9457149
    53     18      2 0.42380000    8.9582567   -6.7813907   -5.6099613
    54     18      2 0.42380000    9.6567727   -5.3064125   -5.6660070
    55     19      1 -0.84760000    3.1244855   -9.2628025   -5.5091977
    56     19      2 0.42380000    3.4296739   -9.8829936   -4.7865477
    57     19      2 0.42380000    3.6232651   -9.4626319   -6.3525761
    58     20      1 -0.84760000    1.6995731   -2.7317309   -6.3511074
    59     20      2 0.42380000    1.1343520   -3.1975167   -7.0319662
    60     20      2 0.42380000    2.0361093   -3.3976911   -5.6853443
    61     21      1 -0.84760000    2.3337770   -5.6831017   -6.7134572
    62     21      2 0.42380000    2.3390240   -5.9144762   -7.6863078
    63     21      2 0.42380000    1.8301046   -6.3830365   -6.2070922
    64     22      1 -0.84760000   -3.3427498   -3.4051257   -7.3135978
    65     22      2 0.42380000   -2.9114301   -4.0718102   -7.9214589
    66     22      2 0.42380000   -2.6882839   -3.1203776   -6.6131744
    67     23      1 -0.84760000   -6.1019841   -3.9216569   -7.3181663
    68     23      2 0.42380000   -5.2587323   -3.6548955   -6.8515135
    69     23      2 0.42380000   -6.0501727   -3.6525582   -8.2798843
    70     24      1 -0.84760000    9.7332217   -2.1999261   -6.2829700
    71     24      2 0.42380000   -9.6205553   -2.0589842   -7.0329908
    72     24      2 0.42380000    8.8490057   -2.4839349   -6.6537814
    73     25      1 -0.84760000   -9.3218808    3.9674088   -4.3337966
    74     25      2 0.42380000    9.8792740    4.4451887   -3.9683205
    75     25      2 0.42380000   -9.6190987    3.2787289   -4.9951448
    76     26      1 -0.84760000   -2.9575845    8.3370179   -9.5741551
    77     26      2 0.42380000   -3.1298637    8.0883631   -8.6210074
    78     26      2 0.42380000   -1.9741605    8.3092691   -9.7533400
    79     27      1 -0.84760000   -8.8054291   -4.3788612   -5.6724390
    80     27      2 0.42380000   -9.3836856   -3.5912418   -5.8852186
    81     27      2 0.42380000   -7.8545482   -4.1641819   -5.8954597
    82     28      1 -0.84760000   -2.0805395   -7.7709396    9.8977169
    83     28      2 0.42380000   -2.8960805   -8.2449617    9.5657591
    84     28      2 0.42380000   -1.2706472   -8.1444218    9.4454057
    85     29      1 -0.84760000   -7.4918509    1.8853591   -3.9022649
    86     29      2 0.42380000   -7.9132145    2.6941859   -4.3124501
    87     29      2 0.42380000   -8.1261027    1.1142864   -3.9585819
    88     30      1 -0.84760000    4.5567208    4.9528816   -6.1607265
    89     30      2 0.42380000    5.0710427    4.0978071   -6.0949959
    90     30      2 0.42380000    3.6524889    4.8302424   -5.7516736
    91     31      1 -0.84760000    8.1142423    4.9080973   -5.8906761
    92     31      2 0.42380000    9.0078654    5.2441757   -6.1881472
    93     31      2 0.42380000    7.6678792    4.4323497   -6.6485839
    94     32      1 -0.84760000    4.6705333    9.8977486   -7.6401959
    95     32      2 0.42380000    5.4395871    9.3874922   -8.0251564
    96     32      2 0.42380000    4.5114191   -9.2784051   -8.1842179
    97     33      1 -0.84760000   -7.4313584   -7.1700266   -5.1373905
    98     33      2 0.42380000   -7.9692485   -6.3291326   -5.1971525
    99     33      2 0.42380000   -6.5087893   -7.0009182   -5.4841879
   100     34      1 -0.84760000   -2.5434585    9.2128372   -4.7205148
   101     34      2 0.42380000   -3.2044498    9.2067110   -3.9701463
   102     34      2 0.42380000   -2.1977118   -9.8581731   -4.8525653
   103     35      1 -0.84760000    2.2591161   -0.0483240   -6.3123318
   104     35      2 0.42380000    2.5684146   -0.9987576   -6.3441186
   105     35      2 0.42380000    1.4386716    0.0163774   -5.7442786
   106     36      1 -0.84760000   -5.1644160   -6.4145366   -6.5818955
   107     36      2 0.42380000   -5.2768947   -7.1699368   -7.2274333
   108     36      2 0.42380000   -5.5192344   -5.5727729   -6.9887589
   109     37      1 -0.84760000   -3.6559703    7.7283350   -6.8575935
   110     37      2 0.42380000   -3.1206630    8.1172394   -6.1077939
   111     37      2 0.42380000   -4.5900396    8.0833808   -6.8194207
   112     38      1 -0.84760000    1.0176949   -4.8951633    9.2738483
   113     38      2 0.42380000    0.7953513   -5.4403684    8.4655694
   114     38      2 0.42380000    1.4084144   -5.4876120    9.9783642
   115     39      1 -0.84760000    1.0075136   -0.5601206   -8.8196394
   116     39      2 0.42380000    0.3697871    0.2098587   -8.7987400
   117     39      2 0.42380000    1.5670408   -0.5520799   -7.9908665
   118     40      1 -0.84760000    8.1102103    7.1679026   -4.2319786
   119     40      2 0.42380000    7.1599168    7.0236881   -4.5079215
   120     40      2 0.42380000    8.4408149    6.3617274   -3.7412831
   121     41      1 -0.84760000    7.8384111    4.1859152   -8.8837363
   122     41      2 0.42380000    7.5503936    4.8061964   -9.6133232
   123     41      2 0.42380000    8.7805066    3.8933103   -9.0475605
   124     42      1 -0.84760000    9.4308995   -8.1005128   -4.5454206
   125     42      2 0.42380000    9.8120048   -7.3811712   -3.9646398
   126     42      2 0.42380000   -9.9943300   -8.9166417   -4.4856490
   127     43      1 -0.84760000   -4.7281268    1.4424249   -4.6687734
   128     43      2 0.42380000   -5.6495649    1.5531569   -4.2963621
   129     43      2 0.42380000   -4.1526392    2.2020221   -4.3657450
   130     44      1 -0.84760000    4.5158679   -4.3496721   -6.2359762
   131     44      2 0.42380000    3.7255641   -4.9510277   -6.3534122
   132     44      2 0.42380000    5.2271658   -4.8303438   -5.7231311
   133     45      1 -0.84760000    0.6347001    2.2025589   -4.0780273
   134     45      2 0.42380000    0.1708097    2.3346549   -3.2020385
   135     45      2 0.42380000    0.2714785    1.3866286   -4.5278358
   136     46      1 -0.84760000   -2.8511017    3.2237510   -3.9946870
   137     46      2 0.42380000   -2.6548429    4.0623471   -4.5028591
   138     46      2 0.42380000   -2.2018057    3.1318185   -3.2397280
   139     47      1 -0.84760000   -1.0204586    2.7329867   -1.7071192
   140     47      2 0.42380000   -0.4671210    3.5473190   -1.5319613
   141     47      2 0.42380000   -1.7444538    2.6679204   -1.0203897
   142     48      1 -0.84760000   -0.1778192    8.0164070   -9.2364511
   143     48      2 0.42380000    0.5109973    7.3735172   -8.9014518
   144     48      2 0.42380000   -0.2271198    8.8028634   -8.6207760
   145     49      1 -0.84760000    6.5268807    2.5841684   -7.0728154
   146     49      2 0.42380000    6.7464237    3.1314654   -7.8804458
   147     49      2 0.42380000    5.7562838    1.9809104   -7.2783886
   148     50      1 -0.84760000    3.9345090    7.0649750   -7.8761586
   149     50      2 0.42380000    4.2409527    6.4351922   -7.1623898
   150     50      2 0.42380000    4.2293676    7.9934818   -7.6504739
   151     51      1 -0.84760000    1.7010031    5.4580229   -8.5904151
   152     51      2 0.42380000    2.3344514    6.1185055   -8.1872949
   153     51      2 0.42380000    2.0219470    4.5300334   -8.4011258
   154     52      1 -0.84760000    2.2932134    4.7035455   -4.4123528
   155     52      2 0.42380000    1.6859974    5.4144955   -4.0576153
   156     52      2 0.42380000    1.7600077    3.8839807   -4.6221269
   157     53      1 -0.84760000   -1.7292835   -3.7255701   -4.7928324
   158     53      2 0.42380000   -0.9111439   -3.6270475   -4.2263159
   159     53      2 0.42380000   -1.9396545   -4.6963182   -4.9085568
   160     54      1 -0.84760000   -2.4794532   -6.1553780   -6.1018917
   161     54      2 0.42380000   -2.1246546   -6.0633476   -7.0322940
   162     54      2 0.42380000   -3.4785707   -6.1883530   -6.1279094
   163     55      1 -0.84760000    4.5404567    4.1846886   -2.7496545
   164     55      2 0.42380000    3.7747556    4.6663311   -3.1759436
   165     55      2 0.42380000    4.2379092    3.2817030   -2.4445611
   166     56      1 -0.84760000    0.0227887    6.7491311   -4.1059639
   167     56      2 0.42380000    0.0744813    7.7013447   -4.4069906
   168     56      2 0.42380000   -0.6848357    6.2725797   -4.6276597
   169     57      1 -0.84760000   -4.3199582   -9.2472758    9.1589486
   170     57      2 0.42380000   -5.0628872   -9.4476486    8.5202724
   171     57      2 0.42380000   -3.9501990    9.8963570    9.5193835
   172     58      1 -0.84760000    3.3656895    1.6826998   -2.4378140
   173     58      2 0.42380000    2.6567539    2.1066565   -3.0014372
   174     58      2 0.42380000    3.8559727    0.9985320   -2.9777553
   175     59      1 -0.84760000    3.6847657    8.6801733   -3.6894861
   176     59      2 0.42380000    2.9247892    8.0803127   -3.4392803
   177     59      2 0.42380000    4.4875533    8.1264734   -3.9107291
   178     60      1 -0.84760000    5.4808811    6.4693780   -4.0475336
   179     60      2 0.42380000    5.6331385    5.8598308   -3.2695427
   180     60      2 0.42380000    5.2877935    5.9255789   -4.8642341
   181     61      1 -0.84760000   -8.5816638   -1.4802287   -8.4589748
   182     61      2 0.42380000   -8.2901725   -0.5361118   -8.3051043
   183     61      2 0.42380000   -7.9906878   -1.9038457   -9.1454848
   184     62      1 -0.84760000   -5.0473735    6.7160976   -4.5273118
   185     62      2 0.42380000   -5.9088945    6.2816273   -4.2646006
   186     62      2 0.42380000   -4.4648766    6.0481483   -4.9904975
   187     63      1 -0.84760000   -0.2281489   -0.1859942   -5.1351054
   188     63      2 0.42380000    0.0160923   -1.1441267   -5.2845320
   189     63      2 0.42380000   -1.1080807   -0.1361081   -4.6626316
   190     64      1 -0.84760000    4.2658164    0.0433497   -4.3935274
   191     64      2 0.42380000    5.1241425   -0.4444939   -4.5525400
   192     64      2 0.42380000    3.8303491    0.2462826   -5.2705602
   193     65      1 -0.84760000   -8.6731352   -0.2802729   -4.8464125
   194     65      2 0.42380000   -7.8181395   -0.7983901   -4.8232399
   195     65      2 0.42380000   -9.4237859   -0.8873405   -5.1071661
   196     66      1 -0.84760000   -2.2891437    5.6032403   -5.4321413
   197     66      2 0.42380000   -1.6942162    5.2306658   -6.1443559
   198     66      2 0.42380000   -2.8517278    6.3350004   -5.8168831
   199     67      1 -0.84760000   -9.6973217    8.1182076   -7.9116512
   200     67      2 0.42380000   -9.9399330    9.0214061   -8.2657308
   201     67      2 0.42380000   -8.7950430    7.8570471   -8.2547084
   202     68      1 -0.84760000   -7.2340991    5.3660651   -3.2964471
   203     68      2 0.42380000   -7.8376143    4.6776734   -3.6987980
   204     68      2 0.42380000   -7.4326679    5.4538014   -2.3202951
   205     69      1 -0.84760000   -6.9073891   -2.6845362    9.8114826
   206     69      2 0.42380000   -5.9791606   -2.3131948    9.8337860
   207     69      2 0.42380000   -7.0602470   -3.1475989    8.9384377
   208     70      1 -0.84760000   -2.5773117   -0.0424824   -4.1491710
   209     70      2 0.42380000   -3.2828965    0.5823269   -4.4834813
   210     70      2 0.42380000   -2.9618647   -0.9609894   -4.0571719
   211     71      1 -0.84760000    0.3650492   -2.7978573   -3.0428025
   212     71      2 0.42380000    0.9842788   -2.0172012   -3.1272463
   213     71      2 0.42380000   -0.4438627   -2.5267488   -2.5211114